Program Version,EnergyPlus, Version 9.6.0-f420c06a69, YMD=2022.04.12 03:31
1,5,Environment Title[],Latitude[deg],Longitude[deg],Time Zone[],Elevation[m]
2,8,Day of Simulation[],Month[],Day of Month[],DST Indicator[1=yes 0=no],Hour[],StartMinute[],EndMinute[],DayType
3,5,Cumulative Day of Simulation[],Month[],Day of Month[],DST Indicator[1=yes 0=no],DayType  ! When Daily Report Variables Requested
4,2,Cumulative Days of Simulation[],Month[]  ! When Monthly Report Variables Requested
5,1,Cumulative Days of Simulation[] ! When Run Period Report Variables Requested
6,1,Calendar Year of Simulation[] ! When Annual Report Variables Requested
201,1,LIVING ZONE,Zone Combined Outdoor Air Sensible Heat Loss Energy [J] !TimeStep,REPORTSCH
202,1,LIVING ZONE,Zone Combined Outdoor Air Current Density Volume Flow Rate [m3/s] !TimeStep,REPORTSCH
203,1,LIVING ZONE,Zone Combined Outdoor Air Mass [kg] !TimeStep,REPORTSCH
253,1,LIVING ZONE,Zone Air System Sensible Heating Energy [J] !TimeStep,REPORTSCH
338,1,LIVING ZONE,Zone Air System Sensible Cooling Energy [J] !TimeStep,REPORTSCH
387,1,LIVING ZONE,Zone Air Temperature [C] !TimeStep,REPORTSCH
388,1,GARAGE ZONE,Zone Air System Sensible Heating Energy [J] !TimeStep,REPORTSCH
425,1,GARAGE ZONE,Zone Air System Sensible Cooling Energy [J] !TimeStep,REPORTSCH
450,1,GARAGE ZONE,Zone Air Temperature [C] !TimeStep,REPORTSCH
451,1,ATTIC ZONE,Zone Air System Sensible Heating Energy [J] !TimeStep,REPORTSCH
488,1,ATTIC ZONE,Zone Air System Sensible Cooling Energy [J] !TimeStep,REPORTSCH
513,1,ATTIC ZONE,Zone Air Temperature [C] !TimeStep,REPORTSCH
539,1,ACDXCOIL 1,Cooling Coil Total Cooling Energy [J] !TimeStep,REPORTSCH
589,1,HEAT PUMP DX HEATING COIL 1,Heating Coil Heating Energy [J] !TimeStep,REPORTSCH
629,1,SUPP HEATING COIL 1,Heating Coil Heating Energy [J] !TimeStep,REPORTSCH
683,1,TWOSPEED HEAT PUMP 1,Unitary System DX Coil Cycling Ratio [] !TimeStep,REPORTSCH
684,1,TWOSPEED HEAT PUMP 1,Unitary System DX Coil Speed Ratio [] !TimeStep,REPORTSCH
685,1,TWOSPEED HEAT PUMP 1,Unitary System DX Coil Speed Level [] !TimeStep
End of Data Dictionary
1,CHICAGO_IL_USA ANNUAL HEATING 99% DESIGN CONDITIONS DB,  41.98, -87.92,  -6.00, 201.00
2,1, 1,21, 0, 1, 0.00,10.00,WinterDesignDay
201,20637636.650334
202,14.506169948091749
203,1093.1100392920032
253,19835719.852453407
338,0.0
387,6.938473394304276
388,0.0
425,0.0
450,-17.92774360227311
451,0.0
488,0.0
513,-18.672308539980637
539,0.0
589,0.0
629,19389101.183533117
683,0.9999999999999999
684,0.9999999999999999
685,1.9999999999999998
2,1, 1,21, 0, 1,10.00,20.00,WinterDesignDay
201,20883526.134776555
202,14.594031473322124
203,1098.9465911875552
253,20571028.50265506
338,0.0
387,8.047667762018136
388,0.0
425,0.0
450,-17.92763636826212
451,0.0
488,0.0
513,-18.67372543182042
539,0.0
589,0.0
629,19556326.562484313
683,0.9999999999999999
684,0.9999999999999999
685,1.9999999999999998
2,1, 1,21, 0, 1,20.00,30.00,WinterDesignDay
201,306964.5049729056
202,0.1560756244248111
203,11.431992371834076
253,19999407.76048815
338,0.0
387,9.382438708935073
388,0.0
425,0.0
450,-17.926316229383996
451,0.0
488,0.0
513,-18.67245404238128
539,0.0
589,0.0
629,20215538.02623522
683,0.9999999999999999
684,0.9999999999999999
685,1.9999999999999998
2,1, 1,21, 0, 1,30.00,40.00,WinterDesignDay
201,20098323.26558765
202,14.308944057037213
203,1079.7158785576885
253,20340649.99976019
338,0.0
387,5.29556509651019
388,0.0
425,0.0
450,-17.92645255814145
451,0.0
488,0.0
513,-18.671011947750138
539,0.0
589,0.0
629,20193290.76501463
683,0.9999999999999999
684,0.9999999999999999
685,1.9999999999999998
2,1, 1,21, 0, 1,40.00,50.00,WinterDesignDay
201,20637636.617530286
202,14.506169935886826
203,1093.1100384322672
253,19835719.86426509
338,0.0
387,6.938473368275422
388,0.0
425,0.0
450,-17.927748042966986
451,0.0
488,0.0
513,-18.672309076094773
539,0.0
589,0.0
629,19389101.195925303
683,0.9999999999999999
684,0.9999999999999999
685,1.9999999999999998
2,1, 1,21, 0, 1,50.00,60.00,WinterDesignDay
201,20883526.12801525
202,14.59403147103437
203,1098.9465910288297
253,20571028.50627014
338,0.0
387,8.047667747869356
388,0.0
425,0.0
450,-17.927640749040457
451,0.0
488,0.0
513,-18.673725961774466
539,0.0
589,0.0
629,19556326.566753764
683,0.9999999999999999
684,0.9999999999999999
685,1.9999999999999998
2,1, 1,21, 0, 2, 0.00,10.00,WinterDesignDay
201,306964.5046268386
202,0.15607562440819467
203,11.431992371834076
253,19999407.768058788
338,0.0
387,9.382438678855765
388,0.0
425,0.0
450,-17.92632055207431
451,0.0
488,0.0
513,-18.672454565628783
539,0.0
589,0.0
629,20215538.033156153
683,0.9999999999999999
684,0.9999999999999999
685,1.9999999999999998
2,1, 1,21, 0, 2,10.00,20.00,WinterDesignDay
201,20098323.240338743
202,14.308944048284086
203,1079.715877947508
253,20340650.003569685
338,0.0
387,5.295565074910268
388,0.0
425,0.0
450,-17.926456823362408
451,0.0
488,0.0
513,-18.67101246300881
539,0.0
589,0.0
629,20193290.768407263
683,0.9999999999999999
684,0.9999999999999999
685,1.9999999999999998
2,1, 1,21, 0, 2,20.00,30.00,WinterDesignDay
201,20637636.58645083
202,14.506169924323423
203,1093.1100376177212
253,19835719.8754559
338,0.0
387,6.938473343614765
388,0.0
425,0.0
450,-17.927752250475315
451,0.0
488,0.0
513,-18.672309584052652
539,0.0
589,0.0
629,19389101.207666107
683,0.9999999999999999
684,0.9999999999999999
685,1.9999999999999998
2,1, 1,21, 0, 2,30.00,40.00,WinterDesignDay
201,20883526.12161002
202,14.59403146886713
203,1098.946590878466
253,20571028.509695034
338,0.0
387,8.04766773446464
388,0.0
425,0.0
450,-17.927644899779068
451,0.0
488,0.0
513,-18.673726463895846
539,0.0
589,0.0
629,19556326.570798613
683,0.9999999999999999
684,0.9999999999999999
685,1.9999999999999998
2,1, 1,21, 0, 2,40.00,50.00,WinterDesignDay
201,306964.5042989564
202,0.1560756243924514
203,11.431992371834076
253,19999407.77523166
338,0.0
387,9.382438650357035
388,0.0
425,0.0
450,-17.92632464777466
451,0.0
488,0.0
513,-18.672455061395915
539,0.0
589,0.0
629,20215538.03971342
683,0.9999999999999999
684,0.9999999999999999
685,1.9999999999999998
2,1, 1,21, 0, 2,50.00,60.00,WinterDesignDay
201,20098323.21641675
202,14.30894403999095
203,1079.7158773693932
253,20340650.007178973
338,0.0
387,5.2955650544456265
388,0.0
425,0.0
450,-17.926460864610878
451,0.0
488,0.0
513,-18.671012951206666
539,0.0
589,0.0
629,20193290.77162162
683,0.9999999999999999
684,0.9999999999999999
685,1.9999999999999998
2,1, 1,21, 0, 3, 0.00,10.00,WinterDesignDay
201,20637636.55700505
202,14.506169913367845
203,1093.1100368459913
253,19835719.886058472
338,0.0
387,6.938473320250404
388,0.0
425,0.0
450,-17.92775623704212
451,0.0
488,0.0
513,-18.672310065333136
539,0.0
589,0.0
629,19389101.21878977
683,0.9999999999999999
684,0.9999999999999999
685,1.9999999999999998
2,1, 1,21, 0, 3,10.00,20.00,WinterDesignDay
201,20883526.115542118
202,14.594031466814048
203,1098.9465907360232
253,20571028.51293975
338,0.0
387,8.047667721764864
388,0.0
425,0.0
450,-17.927648832557175
451,0.0
488,0.0
513,-18.673726939646464
539,0.0
589,0.0
629,19556326.574630674
683,0.9999999999999999
684,0.9999999999999999
685,1.9999999999999998
2,1, 1,21, 0, 3,20.00,30.00,WinterDesignDay
201,306964.5039883043
202,0.15607562437753542
203,11.431992371834076
253,19999407.782027632
338,0.0
387,9.3824386233559
388,0.0
425,0.0
450,-17.92632852840429
451,0.0
488,0.0
513,-18.67245553112604
539,0.0
589,0.0
629,20215538.045926098
683,0.9999999999999999
684,0.9999999999999999
685,1.9999999999999998
2,1, 1,21, 0, 3,30.00,40.00,WinterDesignDay
201,20098323.19375196
202,14.308944032133635
203,1079.7158768216593
253,20340650.010598563
338,0.0
387,5.295565035056574
388,0.0
425,0.0
450,-17.92646469364771
451,0.0
488,0.0
513,-18.67101341376497
539,0.0
589,0.0
629,20193290.774667054
683,0.9999999999999999
684,0.9999999999999999
685,1.9999999999999998
2,1, 1,21, 0, 3,40.00,50.00,WinterDesignDay
201,20637636.52910695
202,14.506169902988093
203,1093.1100361148237
253,19835719.89610377
338,0.0
387,6.9384732981141
388,0.0
425,0.0
450,-17.927760014268593
451,0.0
488,0.0
513,-18.672310521337344
539,0.0
589,0.0
629,19389101.229328778
683,0.9999999999999999
684,0.9999999999999999
685,1.9999999999999998
2,1, 1,21, 0, 3,50.00,60.00,WinterDesignDay
201,20883526.109793726
202,14.594031464869099
203,1098.9465906010823
253,20571028.516013786
338,0.0
387,8.047667709732906
388,0.0
425,0.0
450,-17.92765255881965
451,0.0
488,0.0
513,-18.673727390411287
539,0.0
589,0.0
629,19556326.57826116
683,0.9999999999999999
684,0.9999999999999999
685,1.9999999999999998
2,1, 1,21, 0, 4, 0.00,10.00,WinterDesignDay
201,306964.5036939746
202,0.1560756243634032
203,11.431992371834076
253,19999407.788466573
338,0.0
387,9.382438597773472
388,0.0
425,0.0
450,-17.92633220525694
451,0.0
488,0.0
513,-18.67245597618666
539,0.0
589,0.0
629,20215538.051812354
683,0.9999999999999999
684,0.9999999999999999
685,1.9999999999999998
2,1, 1,21, 0, 4,10.00,20.00,WinterDesignDay
201,20098323.172278147
202,14.308944024689184
203,1079.7158763027062
253,20340650.01383846
338,0.0
387,5.295565016686516
388,0.0
425,0.0
450,-17.92646832161679
451,0.0
488,0.0
513,-18.67101385203051
539,0.0
589,0.0
629,20193290.77755248
683,0.9999999999999999
684,0.9999999999999999
685,1.9999999999999998
2,1, 1,21, 0, 4,20.00,30.00,WinterDesignDay
201,20637636.502675112
202,14.506169893153867
203,1093.1100354220841
253,19835719.905621085
338,0.0
387,6.938473277141263
388,0.0
425,0.0
450,-17.927763593147652
451,0.0
488,0.0
513,-18.67231095339303
539,0.0
589,0.0
629,19389101.23931387
683,0.9999999999999999
684,0.9999999999999999
685,1.9999999999999998
2,1, 1,21, 0, 4,30.00,40.00,WinterDesignDay
201,20883526.10434797
202,14.594031463026564
203,1098.9465904732474
253,20571028.51892614
338,0.0
387,8.047667698333576
388,0.0
425,0.0
450,-17.927656089410142
451,0.0
488,0.0
513,-18.6737278175028
539,0.0
589,0.0
629,19556326.581700698
683,0.9999999999999999
684,0.9999999999999999
685,1.9999999999999998
2,1, 1,21, 0, 4,40.00,50.00,WinterDesignDay
201,306964.5034151104
202,0.15607562435001351
203,11.431992371834076
253,19999407.794567205
338,0.0
387,9.382438573535275
388,0.0
425,0.0
450,-17.926335689031397
451,0.0
488,0.0
513,-18.672456397873518
539,0.0
589,0.0
629,20215538.05738932
683,0.9999999999999999
684,0.9999999999999999
685,1.9999999999999998
2,1, 1,21, 0, 4,50.00,60.00,WinterDesignDay
201,20098323.151932813
202,14.30894401763593
203,1079.7158758110231
253,20340650.01690808
338,0.0
387,5.2955649992819005
388,0.0
425,0.0
450,-17.926471759074396
451,0.0
488,0.0
513,-18.671014267279084
539,0.0
589,0.0
629,20193290.780286286
683,0.9999999999999999
684,0.9999999999999999
685,1.9999999999999998
2,1, 1,21, 0, 5, 0.00,10.00,WinterDesignDay
201,20637636.47763242
202,14.506169883836495
203,1093.1100347657523
253,19835719.9146382
338,0.0
387,6.9384732572707
388,0.0
425,0.0
450,-17.92776698409326
451,0.0
488,0.0
513,-18.672311362757867
539,0.0
589,0.0
629,19389101.24877418
683,0.9999999999999999
684,0.9999999999999999
685,1.9999999999999998
2,1, 1,21, 0, 5,10.00,20.00,WinterDesignDay
201,20883526.09918891
202,14.594031461281043
203,1098.946590352144
253,20571028.52168531
338,0.0
387,8.04766768753362
388,0.0
425,0.0
450,-17.927659434603513
451,0.0
488,0.0
513,-18.673728222164247
539,0.0
589,0.0
629,19556326.584959336
683,0.9999999999999999
684,0.9999999999999999
685,1.9999999999999998
2,1, 1,21, 0, 5,20.00,30.00,WinterDesignDay
201,306964.50315089844
202,0.15607562433732736
203,11.431992371834076
253,19999407.800347324
338,0.0
387,9.382438550570606
388,0.0
425,0.0
450,-17.926338989867627
451,0.0
488,0.0
513,-18.672456797414256
539,0.0
589,0.0
629,20215538.06267326
683,0.9999999999999999
684,0.9999999999999999
685,1.9999999999999998
2,1, 1,21, 0, 5,30.00,40.00,WinterDesignDay
201,20098323.132656537
202,14.308944010953281
203,1079.715875345175
253,20340650.019816402
338,0.0
387,5.2955649827919
388,0.0
425,0.0
450,-17.926475016025893
451,0.0
488,0.0
513,-18.67101466071962
539,0.0
589,0.0
629,20193290.78287645
683,0.9999999999999999
684,0.9999999999999999
685,1.9999999999999998
2,1, 1,21, 0, 5,40.00,50.00,WinterDesignDay
201,20637636.453905832
202,14.506169875008796
203,1093.1100341439135
253,19835719.92318143
338,0.0
387,6.938473238444421
388,0.0
425,0.0
450,-17.92777019697479
451,0.0
488,0.0
513,-18.672311750623695
539,0.0
589,0.0
629,19389101.257737316
683,0.9999999999999999
684,0.9999999999999999
685,1.9999999999999998
2,1, 1,21, 0, 5,50.00,60.00,WinterDesignDay
201,20883526.0943014
202,14.594031459627418
203,1098.946590237416
253,20571028.52429938
338,0.0
387,8.047667677301447
388,0.0
425,0.0
450,-17.92766260413488
451,0.0
488,0.0
513,-18.673728605573768
539,0.0
589,0.0
629,19556326.588046603
683,0.9999999999999999
684,0.9999999999999999
685,1.9999999999999998
2,1, 1,21, 0, 6, 0.00,10.00,WinterDesignDay
201,306964.5029005678
202,0.15607562432530775
203,11.431992371834076
253,19999407.8058238
338,0.0
387,9.38243852881247
388,0.0
425,0.0
450,-17.926342117370723
451,0.0
488,0.0
513,-18.672457175972003
539,0.0
589,0.0
629,20215538.06767959
683,0.9999999999999999
684,0.9999999999999999
685,1.9999999999999998
2,1, 1,21, 0, 6,10.00,20.00,WinterDesignDay
201,20098323.114393108
202,14.308944004621756
203,1079.7158749038033
253,20340650.022571903
338,0.0
387,5.2955649671684375
388,0.0
425,0.0
450,-17.926478101948604
451,0.0
488,0.0
513,-18.671015033497593
539,0.0
589,0.0
629,20193290.785330534
683,0.9999999999999999
684,0.9999999999999999
685,1.9999999999999998
2,1, 1,21, 0, 6,20.00,30.00,WinterDesignDay
201,20637636.431426097
202,14.506169866644996
203,1093.1100335547528
253,19835719.93127569
338,0.0
387,6.93847322060752
388,0.0
425,0.0
450,-17.927773241141864
451,0.0
488,0.0
513,-18.672312118119727
539,0.0
589,0.0
629,19389101.266229425
683,0.9999999999999999
684,0.9999999999999999
685,1.9999999999999998
2,1, 1,21, 0, 6,30.00,40.00,WinterDesignDay
201,20883526.08967112
202,14.594031458060838
203,1098.9465901287274
253,20571028.526775982
338,0.0
387,8.047667667607207
388,0.0
425,0.0
450,-17.927665607228477
451,0.0
488,0.0
513,-18.673728968847566
539,0.0
589,0.0
629,19556326.590971526
683,0.9999999999999999
684,0.9999999999999999
685,1.9999999999999998
2,1, 1,21, 0, 6,40.00,50.00,WinterDesignDay
201,306964.5026633902
202,0.15607562431391964
203,11.431992371834076
253,19999407.811012544
338,0.0
387,9.382438508197565
388,0.0
425,0.0
450,-17.926345080643273
451,0.0
488,0.0
513,-18.67245753464886
539,0.0
589,0.0
629,20215538.07242288
683,0.9999999999999999
684,0.9999999999999999
685,1.9999999999999998
2,1, 1,21, 0, 6,50.00,60.00,WinterDesignDay
201,20098323.09708935
202,14.308943998622915
203,1079.7158744856233
253,20340650.02518261
338,0.0
387,5.295564952365979
388,0.0
425,0.0
450,-17.926481025824128
451,0.0
488,0.0
513,-18.671015386698198
539,0.0
589,0.0
629,20193290.787655666
683,0.9999999999999999
684,0.9999999999999999
685,1.9999999999999998
2,1, 1,21, 0, 7, 0.00,10.00,WinterDesignDay
201,20637636.410127696
202,14.506169858720714
203,1093.1100329965527
253,19835719.93894459
338,0.0
387,6.9384732037079715
388,0.0
425,0.0
450,-17.92777612545406
451,0.0
488,0.0
513,-18.672312466315795
539,0.0
589,0.0
629,19389101.274275266
683,0.9999999999999999
684,0.9999999999999999
685,1.9999999999999998
2,1, 1,21, 0, 7,10.00,20.00,WinterDesignDay
201,20883526.085284475
202,14.5940314565767
203,1098.946590025759
253,20571028.529122364
338,0.0
387,8.047667658422556
388,0.0
425,0.0
450,-17.92766845262332
451,0.0
488,0.0
513,-18.673729313043143
539,0.0
589,0.0
629,19556326.593742657
683,0.9999999999999999
684,0.9999999999999999
685,1.9999999999999998
2,1, 1,21, 0, 7,20.00,30.00,WinterDesignDay
201,306964.50243867305
202,0.15607562430312982
203,11.431992371834076
253,19999407.815928712
338,0.0
387,9.382438488665695
388,0.0
425,0.0
450,-17.926347888307763
451,0.0
488,0.0
513,-18.672457874488956
539,0.0
589,0.0
629,20215538.076916978
683,0.9999999999999999
684,0.9999999999999999
685,1.9999999999999998
2,1, 1,21, 0, 7,30.00,40.00,WinterDesignDay
201,20098323.080694765
202,14.308943992939252
203,1079.7158740894142
253,20340650.02765613
338,0.0
387,5.295564938341347
388,0.0
425,0.0
450,-17.926483796160564
451,0.0
488,0.0
513,-18.671015721349605
539,0.0
589,0.0
629,20193290.789858643
683,0.9999999999999999
684,0.9999999999999999
685,1.9999999999999998
2,1, 1,21, 0, 7,40.00,50.00,WinterDesignDay
201,20637636.38994851
202,14.506169851212855
203,1093.110032467686
253,19835719.94621049
338,0.0
387,6.938473187696503
388,0.0
425,0.0
450,-17.92777885830488
451,0.0
488,0.0
513,-18.672312796225487
539,0.0
589,0.0
629,19389101.2818983
683,0.9999999999999999
684,0.9999999999999999
685,1.9999999999999998
2,1, 1,21, 0, 7,50.00,60.00,WinterDesignDay
201,20883526.08112866
202,14.59403145517067
203,1098.9465899282095
253,20571028.53134537
338,0.0
387,8.047667649720722
388,0.0
425,0.0
450,-17.927671148600894
451,0.0
488,0.0
513,-18.673729639162502
539,0.0
589,0.0
629,19556326.596368082
683,0.9999999999999999
684,0.9999999999999999
685,1.9999999999999998
2,1, 1,21, 0, 8, 0.00,10.00,WinterDesignDay
201,306964.5022257623
202,0.1560756242929069
203,11.431992371834076
253,19999407.820586607
338,0.0
387,9.382438470160006
388,0.0
425,0.0
450,-17.926350548536316
451,0.0
488,0.0
513,-18.672458196481593
539,0.0
589,0.0
629,20215538.08117496
683,0.9999999999999999
684,0.9999999999999999
685,1.9999999999999998
2,1, 1,21, 0, 8,10.00,20.00,WinterDesignDay
201,20098323.065161556
202,14.308943987554212
203,1079.7158737140219
253,20340650.029999696
338,0.0
387,5.295564925053602
388,0.0
425,0.0
450,-17.926486421020687
451,0.0
488,0.0
513,-18.671016038426078
539,0.0
589,0.0
629,20193290.791945882
683,0.9999999999999999
684,0.9999999999999999
685,1.9999999999999998
2,1, 1,21, 0, 8,20.00,30.00,WinterDesignDay
201,20637636.37082964
202,14.506169844099487
203,1093.1100319666082
253,19835719.9530946
338,0.0
387,6.938473172526355
388,0.0
425,0.0
450,-17.92778144764732
451,0.0
488,0.0
513,-18.672313108809252
539,0.0
589,0.0
629,19389101.289120793
683,0.9999999999999999
684,0.9999999999999999
685,1.9999999999999998
2,1, 1,21, 0, 8,30.00,40.00,WinterDesignDay
201,20883526.077191535
202,14.594031453838644
203,1098.9465898357944
253,20571028.533451498
338,0.0
387,8.047667641476297
388,0.0
425,0.0
450,-17.927673703006086
451,0.0
488,0.0
513,-18.67372994815503
539,0.0
589,0.0
629,19556326.598855462
683,0.9999999999999999
684,0.9999999999999999
685,1.9999999999999998
2,1, 1,21, 0, 8,40.00,50.00,WinterDesignDay
201,306964.502024037
202,0.15607562428322108
203,11.431992371834076
253,19999407.824999806
338,0.0
387,9.382438452626536
388,0.0
425,0.0
450,-17.92635306906975
451,0.0
488,0.0
513,-18.672458501564147
539,0.0
589,0.0
629,20215538.08520924
683,0.9999999999999999
684,0.9999999999999999
685,1.9999999999999998
2,1, 1,21, 0, 8,50.00,60.00,WinterDesignDay
201,20098323.05044449
202,14.308943982452098
203,1079.7158733583524
253,20340650.032220118
338,0.0
387,5.295564912464085
388,0.0
425,0.0
450,-17.92648890804302
451,0.0
488,0.0
513,-18.6710163388506
539,0.0
589,0.0
629,20193290.793923456
683,0.9999999999999999
684,0.9999999999999999
685,1.9999999999999998
2,1, 1,21, 0, 9, 0.00,10.00,WinterDesignDay
201,20637636.3527154
202,14.506169837359904
203,1093.1100314918601
253,19835719.959616967
338,0.0
387,6.938473158153372
388,0.0
425,0.0
450,-17.927783901017442
451,0.0
488,0.0
513,-18.672313404977036
539,0.0
589,0.0
629,19389101.295963757
683,0.9999999999999999
684,0.9999999999999999
685,1.9999999999999998
2,1, 1,21, 0, 9,10.00,20.00,WinterDesignDay
201,20883526.073461514
202,14.59403145257669
203,1098.9465897482412
253,20571028.535446897
338,0.0
387,8.047667633665206
388,0.0
425,0.0
450,-17.92767612327366
451,0.0
488,0.0
513,-18.673730240920186
539,0.0
589,0.0
629,19556326.601212077
683,0.9999999999999999
684,0.9999999999999999
685,1.9999999999999998
2,1, 1,21, 0, 9,20.00,30.00,WinterDesignDay
201,306964.5018329086
202,0.15607562427404403
203,11.431992371834076
253,19999407.82918121
338,0.0
387,9.382438436014114
388,0.0
425,0.0
450,-17.926355457243908
451,0.0
488,0.0
513,-18.672458790624667
539,0.0
589,0.0
629,20215538.089031607
683,0.9999999999999999
684,0.9999999999999999
685,1.9999999999999998
2,1, 1,21, 0, 9,30.00,40.00,WinterDesignDay
201,20098323.036500566
202,14.308943977618007
203,1079.7158730213664
253,20340650.034323893
338,0.0
387,5.295564900536011
388,0.0
425,0.0
450,-17.926491264465895
451,0.0
488,0.0
513,-18.671016623497767
539,0.0
589,0.0
629,20193290.795797154
683,0.9999999999999999
684,0.9999999999999999
685,1.9999999999999998
2,1, 1,21, 0, 9,40.00,50.00,WinterDesignDay
201,20637636.335552923
202,14.506169830974436
203,1093.1100310420566
253,19835719.96579663
338,0.0
387,6.938473144535587
388,0.0
425,0.0
450,-17.927786225555256
451,0.0
488,0.0
513,-18.67231368559103
539,0.0
589,0.0
629,19389101.302447177
683,0.9999999999999999
684,0.9999999999999999
685,1.9999999999999998
2,1, 1,21, 0, 9,50.00,60.00,WinterDesignDay
201,20883526.069927707
202,14.594031451381133
203,1098.9465896652946
253,20571028.537337393
338,0.0
387,8.047667626264653
388,0.0
425,0.0
450,-17.927678416447414
451,0.0
488,0.0
513,-18.673730518310283
539,0.0
589,0.0
629,19556326.60344481
683,0.9999999999999999
684,0.9999999999999999
685,1.9999999999999998
2,1, 1,21, 0,10, 0.00,10.00,WinterDesignDay
201,306964.5016518218
202,0.15607562426534913
203,11.431992371834076
253,19999407.833142933
338,0.0
387,9.382438420274475
388,0.0
425,0.0
450,-17.926357720009975
451,0.0
488,0.0
513,-18.672459064504718
539,0.0
589,0.0
629,20215538.09265315
683,0.9999999999999999
684,0.9999999999999999
685,1.9999999999999998
2,1, 1,21, 0,10,10.00,20.00,WinterDesignDay
201,20098323.023289267
202,14.308943973037888
203,1079.7158727020856
253,20340650.036317125
338,0.0
387,5.29556488923466
388,0.0
425,0.0
450,-17.92649349714788
451,0.0
488,0.0
513,-18.671016893196207
539,0.0
589,0.0
629,20193290.797572408
683,0.9999999999999999
684,0.9999999999999999
685,1.9999999999999998
2,1, 1,21, 0,10,20.00,30.00,WinterDesignDay
201,20637636.319292203
202,14.506169824924472
203,1093.110030615887
253,19835719.971651595
338,0.0
387,6.938473131633323
388,0.0
425,0.0
450,-17.927788428026144
451,0.0
488,0.0
513,-18.672313951468087
539,0.0
589,0.0
629,19389101.308589943
683,0.9999999999999999
684,0.9999999999999999
685,1.9999999999999998
2,1, 1,21, 0,10,30.00,40.00,WinterDesignDay
201,20883526.06657982
202,14.594031450248483
203,1098.9465895867122
253,20571028.53912851
338,0.0
387,8.047667619253067
388,0.0
425,0.0
450,-17.927680589200634
451,0.0
488,0.0
513,-18.673730781132804
539,0.0
589,0.0
629,19556326.605560165
683,0.9999999999999999
684,0.9999999999999999
685,1.9999999999999998
2,1, 1,21, 0,10,40.00,50.00,WinterDesignDay
201,306964.5014802482
202,0.15607562425711102
203,11.431992371834076
253,19999407.83689654
338,0.0
387,9.382438405361718
388,0.0
425,0.0
450,-17.926359863951813
451,0.0
488,0.0
513,-18.672459324001544
539,0.0
589,0.0
629,20215538.096084435
683,0.9999999999999999
684,0.9999999999999999
685,1.9999999999999998
2,1, 1,21, 0,10,50.00,60.00,WinterDesignDay
201,20098323.010772076
202,14.308943968698415
203,1079.7158723995797
253,20340650.038205635
338,0.0
387,5.295564878527083
388,0.0
425,0.0
450,-17.92649561258564
451,0.0
488,0.0
513,-18.671017148731014
539,0.0
589,0.0
629,20193290.799254395
683,0.9999999999999999
684,0.9999999999999999
685,1.9999999999999998
2,1, 1,21, 0,11, 0.00,10.00,WinterDesignDay
201,20637636.303885855
202,14.506169819192385
203,1093.1100302121088
253,19835719.97719893
338,0.0
387,6.938473119408969
388,0.0
425,0.0
450,-17.92779051483981
451,0.0
488,0.0
513,-18.67231420338222
539,0.0
589,0.0
629,19389101.314409956
683,0.9999999999999999
684,0.9999999999999999
685,1.9999999999999998
2,1, 1,21, 0,11,10.00,20.00,WinterDesignDay
201,20883526.063407984
202,14.594031449175393
203,1098.9465895122628
253,20571028.540825475
338,0.0
387,8.047667612609951
388,0.0
425,0.0
450,-17.927682647857573
451,0.0
488,0.0
513,-18.673731030152794
539,0.0
589,0.0
629,19556326.607564338
683,0.9999999999999999
684,0.9999999999999999
685,1.9999999999999998
2,1, 1,21, 0,11,20.00,30.00,WinterDesignDay
201,306964.5013176861
202,0.1560756242493056
203,11.431992371834076
253,19999407.84045303
338,0.0
387,9.382438391232217
388,0.0
425,0.0
450,-17.926361895310325
451,0.0
488,0.0
513,-18.67245956987051
539,0.0
589,0.0
629,20215538.099335514
683,0.9999999999999999
684,0.9999999999999999
685,1.9999999999999998
2,1, 1,21, 0,11,30.00,40.00,WinterDesignDay
201,20098322.99891236
202,14.308943964586854
203,1079.7158721129615
253,20340650.039994944
338,0.0
387,5.2955648683820415
388,0.0
425,0.0
450,-17.92649761693623
451,0.0
488,0.0
513,-18.67101739084604
539,0.0
589,0.0
629,20193290.80084805
683,0.9999999999999999
684,0.9999999999999999
685,1.9999999999999998
2,1, 1,21, 0,11,40.00,50.00,WinterDesignDay
201,20637636.289288953
202,14.506169813761463
203,1093.110029829545
253,19835719.9824548
338,0.0
387,6.938473107826904
388,0.0
425,0.0
450,-17.92779249206894
451,0.0
488,0.0
513,-18.67231444206667
539,0.0
589,0.0
629,19389101.31992419
683,0.9999999999999999
684,0.9999999999999999
685,1.9999999999999998
2,1, 1,21, 0,11,50.00,60.00,WinterDesignDay
201,20883526.060402982
202,14.594031448158768
203,1098.9465894417303
253,20571028.542433243
338,0.0
387,8.047667606315974
388,0.0
425,0.0
450,-17.927684598408625
451,0.0
488,0.0
513,-18.673731266095157
539,0.0
589,0.0
629,19556326.609463155
683,0.9999999999999999
684,0.9999999999999999
685,1.9999999999999998
2,1, 1,21, 0,12, 0.00,10.00,WinterDesignDay
201,306964.501163665
202,0.15607562424191024
203,11.431992371834076
253,19999407.843822647
338,0.0
387,9.382438377845075
388,0.0
425,0.0
450,-17.926363819996883
451,0.0
488,0.0
513,-18.672459802827323
539,0.0
589,0.0
629,20215538.10241577
683,0.9999999999999999
684,0.9999999999999999
685,1.9999999999999998
2,1, 1,21, 0,12,10.00,20.00,WinterDesignDay
201,20098322.987675767
202,14.30894396069133
203,1079.7158718414034
253,20340650.041690234
338,0.0
387,5.295564858770012
388,0.0
425,0.0
450,-17.92649951603387
451,0.0
488,0.0
513,-18.67101762024606
539,0.0
589,0.0
629,20193290.802357964
683,0.9999999999999999
684,0.9999999999999999
685,1.9999999999999998
2,1, 1,21, 0,12,20.00,30.00,WinterDesignDay
201,20637636.275458947
202,14.506169808615875
203,1093.1100294670805
253,19835719.987434536
338,0.0
387,6.938473096853336
388,0.0
425,0.0
450,-17.927794365469232
451,0.0
488,0.0
513,-18.67231466821634
539,0.0
589,0.0
629,19389101.32514871
683,0.9999999999999999
684,0.9999999999999999
685,1.9999999999999998
2,1, 1,21, 0,12,30.00,40.00,WinterDesignDay
201,20883526.057555985
202,14.594031447195597
203,1098.9465893749066
253,20571028.54395651
338,0.0
387,8.047667600352728
388,0.0
425,0.0
450,-17.927686446531293
451,0.0
488,0.0
513,-18.673731489646737
539,0.0
589,0.0
629,19556326.61126218
683,0.9999999999999999
684,0.9999999999999999
685,1.9999999999999998
2,1, 1,21, 0,12,40.00,50.00,WinterDesignDay
201,306964.50101773406
202,0.1560756242349034
203,11.431992371834076
253,19999407.847015288
338,0.0
387,9.382438365161114
388,0.0
425,0.0
450,-17.926365643612836
451,0.0
488,0.0
513,-18.672460023550187
539,0.0
589,0.0
629,20215538.105334237
683,0.9999999999999999
684,0.9999999999999999
685,1.9999999999999998
2,1, 1,21, 0,12,50.00,60.00,WinterDesignDay
201,20098322.977029435
202,14.308943957000423
203,1079.715871584109
253,20340650.04329648
338,0.0
387,5.295564849662933
388,0.0
425,0.0
450,-17.92650131540424
451,0.0
488,0.0
513,-18.671017837598914
539,0.0
589,0.0
629,20193290.80378857
683,0.9999999999999999
684,0.9999999999999999
685,1.9999999999999998
2,1, 1,21, 0,13, 0.00,10.00,WinterDesignDay
201,20637636.262355484
202,14.506169803740598
203,1093.1100291236576
253,19835719.992152665
338,0.0
387,6.938473086456262
388,0.0
425,0.0
450,-17.927796140491935
451,0.0
488,0.0
513,-18.6723148824895
539,0.0
589,0.0
629,19389101.330098767
683,0.9999999999999999
684,0.9999999999999999
685,1.9999999999999998
2,1, 1,21, 0,13,10.00,20.00,WinterDesignDay
201,20883526.054858718
202,14.594031446283083
203,1098.9465893115978
253,20571028.545399714
338,0.0
387,8.047667594702853
388,0.0
425,0.0
450,-17.9276881976039
451,0.0
488,0.0
513,-18.67373170145826
539,0.0
589,0.0
629,19556326.612966646
683,0.9999999999999999
684,0.9999999999999999
685,1.9999999999999998
2,1, 1,21, 0,13,20.00,30.00,WinterDesignDay
201,306964.50087946985
202,0.1560756242282646
203,11.431992371834076
253,19999407.850040205
338,0.0
387,9.382438353143518
388,0.0
425,0.0
450,-17.92636737146552
451,0.0
488,0.0
513,-18.672460232681537
539,0.0
589,0.0
629,20215538.10809937
683,0.9999999999999999
684,0.9999999999999999
685,1.9999999999999998
2,1, 1,21, 0,13,30.00,40.00,WinterDesignDay
201,20098322.966942437
202,14.308943953503432
203,1079.715871340333
253,20340650.044818327
338,0.0
387,5.295564841034317
388,0.0
425,0.0
450,-17.926503020284372
451,0.0
488,0.0
513,-18.6710180435372
539,0.0
589,0.0
629,20193290.805144012
683,0.9999999999999999
684,0.9999999999999999
685,1.9999999999999998
2,1, 1,21, 0,13,40.00,50.00,WinterDesignDay
201,20637636.24994047
202,14.506169799121466
203,1093.1100287982779
253,19835719.996622905
338,0.0
387,6.938473076605439
388,0.0
425,0.0
450,-17.92779782230297
451,0.0
488,0.0
513,-18.67231508550982
539,0.0
589,0.0
629,19389101.334788755
683,0.9999999999999999
684,0.9999999999999999
685,1.9999999999999998
2,1, 1,21, 0,13,50.00,60.00,WinterDesignDay
201,20883526.05230325
202,14.594031445418548
203,1098.9465892516173
253,20571028.54676707
338,0.0
387,8.047667589349853
388,0.0
425,0.0
450,-17.92768985672262
451,0.0
488,0.0
513,-18.673731902146233
539,0.0
589,0.0
629,19556326.61458154
683,0.9999999999999999
684,0.9999999999999999
685,1.9999999999999998
2,1, 1,21, 0,14, 0.00,10.00,WinterDesignDay
201,306964.500748468
202,0.15607562422197452
203,11.431992371834076
253,19999407.852906246
338,0.0
387,9.382438341757146
388,0.0
425,0.0
450,-17.92636900858376
451,0.0
488,0.0
513,-18.67246043083014
539,0.0
589,0.0
629,20215538.11071928
683,0.9999999999999999
684,0.9999999999999999
685,1.9999999999999998