Program Version,EnergyPlus, Version 9.2.0-921312fa1d, YMD=2020.09.02 16:00
1,5,Environment Title[],Latitude[deg],Longitude[deg],Time Zone[],Elevation[m]
2,8,Day of Simulation[],Month[],Day of Month[],DST Indicator[1=yes 0=no],Hour[],StartMinute[],EndMinute[],DayType
3,5,Cumulative Day of Simulation[],Month[],Day of Month[],DST Indicator[1=yes 0=no],DayType  ! When Daily Report Variables Requested
4,2,Cumulative Days of Simulation[],Month[]  ! When Monthly Report Variables Requested
5,1,Cumulative Days of Simulation[] ! When Run Period Report Variables Requested
6,1,Calendar Year of Simulation[] ! When Annual Report Variables Requested
7,1,Environment,Site Outdoor Air Drybulb Temperature [C] !Hourly
270,1,PLENUM-1,Zone Mean Air Dewpoint Temperature [C] !Hourly
271,1,SPACE1-1,Zone Mean Air Dewpoint Temperature [C] !Hourly
272,1,SPACE2-1,Zone Mean Air Dewpoint Temperature [C] !Hourly
273,1,SPACE3-1,Zone Mean Air Dewpoint Temperature [C] !Hourly
274,1,SPACE4-1,Zone Mean Air Dewpoint Temperature [C] !Hourly
275,1,SPACE5-1,Zone Mean Air Dewpoint Temperature [C] !Hourly
362,1,PLENUM-1,Zone Air System Sensible Heating Rate [W] !Hourly
363,1,PLENUM-1,Zone Air System Sensible Cooling Rate [W] !Hourly
364,1,PLENUM-1,Zone Air Temperature [C] !Hourly
403,1,SPACE1-1,Zone Air System Sensible Heating Rate [W] !Hourly
404,1,SPACE1-1,Zone Air System Sensible Cooling Rate [W] !Hourly
405,1,SPACE1-1,Zone Air Temperature [C] !Hourly
444,1,SPACE2-1,Zone Air System Sensible Heating Rate [W] !Hourly
445,1,SPACE2-1,Zone Air System Sensible Cooling Rate [W] !Hourly
446,1,SPACE2-1,Zone Air Temperature [C] !Hourly
485,1,SPACE3-1,Zone Air System Sensible Heating Rate [W] !Hourly
486,1,SPACE3-1,Zone Air System Sensible Cooling Rate [W] !Hourly
487,1,SPACE3-1,Zone Air Temperature [C] !Hourly
526,1,SPACE4-1,Zone Air System Sensible Heating Rate [W] !Hourly
527,1,SPACE4-1,Zone Air System Sensible Cooling Rate [W] !Hourly
528,1,SPACE4-1,Zone Air Temperature [C] !Hourly
567,1,SPACE5-1,Zone Air System Sensible Heating Rate [W] !Hourly
568,1,SPACE5-1,Zone Air System Sensible Cooling Rate [W] !Hourly
569,1,SPACE5-1,Zone Air Temperature [C] !Hourly
570,1,HOT WATER LOOP,Plant Supply Side Cooling Demand Rate [W] !Hourly
571,1,HOT WATER LOOP,Plant Supply Side Heating Demand Rate [W] !Hourly
572,1,CHILLED WATER LOOP,Plant Supply Side Cooling Demand Rate [W] !Hourly
573,1,CHILLED WATER LOOP,Plant Supply Side Heating Demand Rate [W] !Hourly
747,1,SPACE1-1 ZONE COIL,Heating Coil Heating Rate [W] !Hourly
750,1,SPACE2-1 ZONE COIL,Heating Coil Heating Rate [W] !Hourly
753,1,SPACE3-1 ZONE COIL,Heating Coil Heating Rate [W] !Hourly
756,1,SPACE4-1 ZONE COIL,Heating Coil Heating Rate [W] !Hourly
759,1,SPACE5-1 ZONE COIL,Heating Coil Heating Rate [W] !Hourly
762,1,OA HEATING COIL 1,Heating Coil Heating Rate [W] !Hourly
765,1,MAIN HEATING COIL 1,Heating Coil Heating Rate [W] !Hourly
816,1,OA COOLING COIL 1,Cooling Coil Total Cooling Rate [W] !Hourly
817,1,OA COOLING COIL 1,Cooling Coil Sensible Cooling Rate [W] !Hourly
820,1,MAIN COOLING COIL 1,Cooling Coil Total Cooling Rate [W] !Hourly
821,1,MAIN COOLING COIL 1,Cooling Coil Sensible Cooling Rate [W] !Hourly
859,1,CENTRAL BOILER,Boiler Heating Rate [W] !Hourly
885,1,CENTRAL BOILER,Boiler Gas Rate [W] !Hourly
972,1,CENTRAL CHILLER,Chiller Electric Power [W] !Hourly
998,1,CENTRAL CHILLER,Chiller Evaporator Cooling Rate [W] !Hourly
1012,1,CENTRAL CHILLER,Chiller Evaporator Inlet Temperature [C] !Hourly
1013,1,CENTRAL CHILLER,Chiller Evaporator Outlet Temperature [C] !Hourly
1014,1,CENTRAL CHILLER,Chiller Evaporator Mass Flow Rate [kg/s] !Hourly
1015,1,CENTRAL CHILLER,Chiller Condenser Heat Transfer Rate [W] !Hourly
1054,1,HW CIRC PUMP,Pump Outlet Temperature [C] !Hourly
1055,1,HW CIRC PUMP,Pump Mass Flow Rate [kg/s] !Hourly
1057,1,CW CIRC PUMP,Pump Outlet Temperature [C] !Hourly
1058,1,CW CIRC PUMP,Pump Mass Flow Rate [kg/s] !Hourly
1059,1,MIXED AIR NODE 1,System Node Temperature [C] !Hourly
1060,1,MIXED AIR NODE 1,System Node Humidity Ratio [kgWater/kgDryAir] !Hourly
1061,1,MIXED AIR NODE 1,System Node Dewpoint Temperature [C] !Hourly
1062,1,VAV SYS 1 OUTLET NODE,System Node Temperature [C] !Hourly
1063,1,VAV SYS 1 OUTLET NODE,System Node Mass Flow Rate [kg/s] !Hourly
1064,1,VAV SYS 1 OUTLET NODE,System Node Humidity Ratio [kgWater/kgDryAir] !Hourly
1065,1,VAV SYS 1 OUTLET NODE,System Node Setpoint Temperature [C] !Hourly
1066,1,OA HEATING COIL 1 WATER INLET NODE,System Node Temperature [C] !Hourly
1067,1,OA HEATING COIL 1 WATER INLET NODE,System Node Mass Flow Rate [kg/s] !Hourly
1068,1,MAIN HEATING COIL 1 WATER INLET NODE,System Node Mass Flow Rate [kg/s] !Hourly
1069,1,MAIN COOLING COIL 1 WATER INLET NODE,System Node Mass Flow Rate [kg/s] !Hourly
1070,1,OA COOLING COIL 1 WATER INLET NODE,System Node Temperature [C] !Hourly
1071,1,OA COOLING COIL 1 WATER INLET NODE,System Node Mass Flow Rate [kg/s] !Hourly
1072,1,OA MIXING BOX 1 INLET NODE,System Node Temperature [C] !Hourly
1073,1,OA MIXING BOX 1 INLET NODE,System Node Mass Flow Rate [kg/s] !Hourly
1074,1,OA MIXING BOX 1 INLET NODE,System Node Humidity Ratio [kgWater/kgDryAir] !Hourly
1075,1,OA MIXING BOX 1 INLET NODE,System Node Setpoint Temperature [C] !Hourly
1076,1,OA HEATING COIL 1 AIR OUTLET NODE,System Node Temperature [C] !Hourly
1077,1,OA HEATING COIL 1 AIR OUTLET NODE,System Node Mass Flow Rate [kg/s] !Hourly
1078,1,OA HEATING COIL 1 AIR OUTLET NODE,System Node Humidity Ratio [kgWater/kgDryAir] !Hourly
1079,1,OA HEATING COIL 1 AIR OUTLET NODE,System Node Setpoint Temperature [C] !Hourly
End of Data Dictionary
1,RUN PERIOD 1,  41.98, -87.92,  -6.00, 201.00
2,1, 1, 1, 0, 1, 0.00,60.00,Tuesday
7,-8.2625
270,-8.475823177658527
271,-8.479624233627792
272,-8.54095152404646
273,-8.476424623464906
274,-8.548118300928755
275,-8.39340289070528
362,378.8838727215651
363,0.0
364,15.97669076318273
403,2.043161195788258
404,1.026611912544439
405,17.057632323529306
444,0.0
445,6.841531053703164
446,17.250676845627319
485,1.5150255669013007
486,1.247752359211347
487,17.074565875945504
526,0.0
527,8.030379627470638
528,17.245741034582019
567,0.0
568,89.84404503438958
569,18.89717392895562
570,0.0
571,0.0
572,0.0
573,0.0
747,0.0
750,0.0
753,0.0
756,0.0
759,0.0
762,0.0
765,0.0
816,0.0
817,0.0
820,0.0
821,0.0
859,0.0
885,0.0
972,0.0
998,0.0
1012,7.22
1013,7.22
1014,0.0
1015,0.0
1054,74.01326510130025
1055,0.0
1057,7.22
1058,0.0
1059,16.07334603609047
1060,0.0018644225496673283
1061,-8.495935509327947
1062,17.080830510960877
1063,0.2230737757667906
1064,0.0018644225496673283
1065,16.0
1066,82.0
1067,0.0
1068,0.0
1069,0.0
1070,7.22
1071,0.0
1072,-8.2625
1073,0.0
1074,0.001422288734241492
1075,11.5
1076,-8.2625
1077,0.0
1078,0.001422288734241492
1079,4.5
2,1, 1, 1, 0, 2, 0.00,60.00,Tuesday
7,-11.8875
270,-8.53997596798111
271,-8.702846560633594
272,-8.674045881361672
273,-8.702449052104076
274,-8.656398790339355
275,-8.677196095420279
362,385.3945773690441
363,0.0
364,15.51637726437448
403,192.9489518633375
404,0.0
405,16.700636965774647
444,6.521439650293104
445,3.5293524770195008
446,16.798506839149306
485,158.7584288497336
486,0.0
487,16.701500146136966
526,7.208486486054994
527,4.139486406128242
528,16.79605177578437
567,0.0
568,100.5656387522989
569,18.6840651903732
570,0.0
571,90.68370866325174
572,0.0
573,0.0
747,195.14194127651474
750,8.941975455233504
753,160.92929479407054
756,10.142247631312158
759,0.0
762,0.0
765,0.0
816,0.0
817,0.0
820,0.0
821,0.0
859,90.68370866325174
885,113.35463582906468
972,0.0
998,0.0
1012,7.22
1013,7.22
1014,0.0
1015,0.0
1054,71.63511014688339
1055,0.001884249085884956
1057,7.22
1058,0.0
1059,15.64330471784313
1060,0.0018599925696626055
1061,-8.494357458716303
1062,16.650797421293829
1063,0.2230737757667906
1064,0.0018599925696626055
1065,16.0
1066,82.0
1067,0.0
1068,0.0
1069,0.0
1070,7.22
1071,0.0
1072,-11.8875
1073,0.0
1074,0.0010028609043981412
1075,11.5
1076,-11.8875
1077,0.0
1078,0.0010028609043981412
1079,4.5
2,1, 1, 1, 0, 3, 0.00,60.00,Tuesday
7,-11.325
270,-8.751553140196009
271,-8.910436460251058
272,-8.825498800849328
273,-8.91263663533861
274,-8.802174813878875
275,-8.943946059486802
362,480.030636605257
363,0.0
364,14.976235151265039
403,365.80822452250609
404,0.0
405,16.700229606267344
444,83.77167450677024
445,0.0
446,16.699918537967105
485,335.6925822744083
486,0.0
487,16.699837525725817
526,83.86518860549603
527,0.0
528,16.699629553754769
567,0.0
568,118.49171430223754
569,18.536295614394264
570,0.0
571,453.67002403153836
572,0.0
573,0.0
747,390.3568329459527
750,106.31050097384218
753,359.57735580575567
756,111.09739792698756
759,0.0
762,0.0
765,4.802307674248102
816,0.0
817,0.0
820,0.0
821,0.0
859,453.67002403153836
885,567.087530039423
972,0.0
998,0.0
1012,7.22
1013,7.22
1014,0.0
1015,0.0
1054,61.06462650291956
1055,0.005076589537932993
1057,7.22
1058,0.0
1059,15.111482292227358
1060,0.0018269231754988809
1061,-8.700894752420462
1062,16.1403889416936
1063,0.2230737757667906
1064,0.0018269231754988809
1065,16.0
1066,82.0
1067,0.0
1068,0.000023075280078838488
1069,0.0
1070,7.22
1071,0.0
1072,-11.325
1073,0.0
1074,0.0010552609473343869
1075,11.5
1076,-11.325
1077,0.0
1078,0.0010552609473343869
1079,4.5
2,1, 1, 1, 0, 4, 0.00,60.00,Tuesday
7,-11.1
270,-8.936741563356627
271,-9.07963679690093
272,-8.987699933665953
273,-9.082994853727169
274,-8.96946514844014
275,-9.146971593088342
362,585.8853254525175
363,0.0
364,14.479370210953624
403,475.14318534338886
404,0.0
405,16.69966049284662
444,145.00620221972944
445,0.0
446,16.699575551595357
485,445.8925178274644
486,0.0
487,16.699996825534737
526,145.52735297642509
527,0.0
528,16.70035107473884
567,0.0
568,119.47919268189586
569,18.415616377899597
570,0.0
571,1135.0944917318955
572,0.0
573,0.0
747,505.8361228185927
750,173.2004300803128
753,475.79148245764716
756,179.64801122392994
759,0.0
762,0.0
765,89.22304381298543
816,0.0
817,0.0
820,0.0
821,0.0
859,1135.0944917318955
885,1418.868114664869
972,0.0
998,0.0
1012,7.22
1013,7.22
1014,0.0
1015,0.0
1054,51.01747978731434
1055,0.008682349260398993
1057,7.22
1058,0.0
1059,14.59526374438166
1060,0.0017967688285628154
1061,-8.893785520292234
1062,15.999601514649302
1063,0.2230737757667906
1064,0.0017967688285628154
1065,16.0
1066,82.0
1067,0.0
1068,0.0004992313514154273
1069,0.0
1070,7.22
1071,0.0
1072,-11.1
1073,0.0
1074,0.001077079816545153
1075,11.5
1076,-11.1
1077,0.0
1078,0.001077079816545153
1079,4.5
2,1, 1, 1, 0, 5, 0.00,60.00,Tuesday
7,-10.7875
270,-9.117041951860488
271,-9.263394565784584
272,-9.169822235684443
273,-9.267363247641957
274,-9.152907005616026
275,-9.353523969363883
362,670.2724259513846
363,0.0
364,14.07719922596809
403,543.6804311792246
404,0.0
405,16.699825394027046
444,179.88905276949033
445,0.0
446,16.700337230511978
485,513.588320695387
486,0.0
487,16.699844740189247
526,179.46990374262217
527,0.0
528,16.699731455114728
567,0.0
568,113.97081424856265
569,18.3046069600846
570,0.0
571,1748.63285019237
572,0.0
573,0.0
747,574.3718478205897
750,208.10352694267153
753,543.4724597818304
756,213.54756008558216
759,0.0
762,0.0
765,185.22233766665969
816,0.0
817,0.0
820,0.0
821,0.0
859,1748.63285019237
885,2185.791062740462
972,0.0
998,0.0
1012,7.22
1013,7.22
1014,0.0
1015,0.0
1054,48.52059881697449
1055,0.012499745607105307
1057,7.22
1058,0.0
1059,14.168554773499264
1060,0.0017689668037289566
1061,-9.070322463346795
1062,15.999842154359417
1063,0.2230737757667906
1064,0.0017689668037289566
1065,16.0
1066,82.0
1067,0.0
1068,0.0011269466458073694
1069,0.0
1070,7.22
1071,0.0
1072,-10.7875
1073,0.0
1074,0.0011077366177627828
1075,11.5
1076,-10.7875
1077,0.0
1078,0.0011077366177627828
1079,4.5
2,1, 1, 1, 0, 6, 0.00,60.00,Tuesday
7,-10.6
270,-9.29950723051331
271,-9.433651525741713
272,-9.342025964468519
273,-9.437890592206936
274,-9.326406510312833
275,-9.537500415342846
362,735.9465276697805
363,0.0
364,13.768211365066634
403,576.7438882655364
404,0.0
405,16.69999508407147
444,195.93575810077554
445,0.0
446,16.699881753002413
485,546.668285865818
486,0.0
487,16.700052144904885
526,196.09618076181872
527,0.0
528,16.699730883268694
567,0.0
568,110.49836189715268
569,18.234578599283965
570,0.0
571,2006.8797698819497
572,0.0
573,0.0
747,607.437070405509
750,224.1270126451974
753,576.5559307855998
756,230.1679949151785
759,0.0
762,0.0
765,259.6620412265598
816,0.0
817,0.0
820,0.0
821,0.0
859,2006.8797698819497
885,2508.599712352437
972,0.0
998,0.0
1012,7.22
1013,7.22
1014,0.0
1015,0.0
1054,50.74882482356373
1055,0.015377681489995252
1057,7.22
1058,0.0
1059,13.837505378626969
1060,0.0017402769795619058
1061,-9.255155345856512
1062,15.99991605460324
1063,0.2230737757667906
1064,0.0017402769795619058
1065,16.0
1066,82.0
1067,0.0
1068,0.001660616980724588
1069,0.0
1070,7.22
1071,0.0
1072,-10.6
1073,0.0
1074,0.0011263833763957195
1075,11.5
1076,-10.6
1077,0.0
1078,0.0011263833763957195
1079,4.5
2,1, 1, 1, 0, 7, 0.00,60.00,Tuesday
7,-10.6
270,-9.429999609853077
271,-9.550087069553765
272,-9.467734222925709
273,-9.554194255038566
274,-9.455041722580509
275,-9.656389860076026
362,1186.4651598938443
363,0.0
364,13.813745599561596
403,2534.3389470822319
404,0.0
405,18.480546263364127
444,1627.4080997727095
445,0.0
446,19.749778862978759
485,2467.9032626809087
486,0.0
487,18.473779346888994
526,1725.7842915062127
527,0.0
528,19.989776308580525
567,2527.6407574297165
568,0.0
569,19.80765368439146
570,0.0
571,12751.384700420258
572,0.0
573,0.0
747,2643.094058308173
750,1778.428147837749
753,2573.509439605861
756,1920.028009285621
759,2716.083292830168
762,0.0
765,272.063825304427
816,0.0
817,0.0
820,0.0
821,0.0
859,12751.384700420258
885,15939.23087552532
972,0.0
998,0.0
1012,7.219999999999999
1013,7.219999999999999
1014,0.0
1015,0.0
1054,74.30288613692038
1055,0.39489991728230458
1057,7.219999999999999
1058,0.0
1059,13.78234030945908
1060,0.0017153918411374975
1061,-9.417688366532165
1062,16.000000577145636
1063,0.2230737757667906
1064,0.0017153918411374975
1065,16.0
1066,82.0
1067,0.0
1068,0.0017537025292261623
1069,0.0
1070,7.219999999999999
1071,0.0
1072,-10.6
1073,0.0
1074,0.0011650308833787496
1075,11.5
1076,-10.6
1077,0.0
1078,0.0011650308833787496
1079,4.5
2,1, 1, 1, 0, 8, 0.00,60.00,Tuesday
7,-10.225
270,-9.578941232237519
271,-9.685843565916353
272,-9.6131964916582
273,-9.689675115218579
274,-9.602077258875636
275,-9.790633482765785
362,1420.073558175854
363,0.0
364,14.168029209793917
403,2490.4811083664919
404,0.0
405,19.479993348286283
444,1489.7333473529878
445,0.0
446,21.590080644540089
485,2425.0471214636015
486,0.0
487,19.476817882667868
526,1642.8187839624857
527,0.0
528,21.693385794849733
567,2477.13754289615
568,0.0
569,20.827839640428267
570,0.0
571,11649.466285581935
572,0.0
573,0.0
747,2643.027393119631
750,1714.8685606026953
753,2573.4445295975958
756,1920.0072182232366
759,2716.027948043401
762,0.0
765,197.17831150657958
816,0.0
817,0.0
820,0.0
821,0.0
859,11649.466285581935
885,14561.832856977417
972,0.0
998,0.0
1012,7.22
1013,7.22
1014,0.0
1015,0.0
1054,74.86704813127374
1055,0.38933227850950916
1057,7.22
1058,0.0
1059,14.11507811134127
1060,0.001695259417717877
1061,-9.550915883060517
1062,15.999782832637188
1063,0.2230737757667906
1064,0.001695259417717877
1065,16.0
1066,82.0
1067,0.0
1068,0.0012103009008053992
1069,0.0
1070,7.22
1071,0.0
1072,-10.225
1073,0.0
1074,0.001228779734699374
1075,11.5
1076,-10.225
1077,0.0
1078,0.001228779734699374
1079,4.5
2,1, 1, 1, 0, 9, 0.00,60.00,Tuesday
7,-9.3125
270,-9.730316991835205
271,-9.822458784182459
272,-9.759030446531732
273,-9.825920979586178
274,-9.74914013219882
275,-9.9220724798251
362,1477.813625266123
363,0.0
364,14.572689369226416
403,2455.9954525423247
404,0.0
405,20.26615280748016
444,646.1901420124838
445,0.0
446,22.201308091987447
485,2395.1275430586968
486,0.0
487,20.177212117099047
526,1468.3642689614399
527,0.0
528,22.19833912360777
567,2454.669861800914
568,0.0
569,21.2816987124803
570,0.0
571,10621.750875238933
572,0.0
573,0.0
747,2642.934497435179
750,895.8990865939945
753,2573.354079675143
756,1770.0953151585332
759,2715.9475061577625
762,0.0
765,117.26466398334169
816,0.0
817,0.0
820,0.0
821,0.0
859,10621.750875238933
885,13277.188594048666
972,0.0
998,0.0
1012,7.22
1013,7.22
1014,0.0
1015,0.0
1054,74.66525651159296
1055,0.3451171435637512
1057,7.22
1058,0.0
1059,14.470681283740328
1060,0.001673072272531126
1061,-9.699266430480002
1062,16.000050615071264
1063,0.2230737757667906
1064,0.001673072272531126
1065,16.0
1066,82.0
1067,0.0
1068,0.0006737939612868884
1069,0.0
1070,7.22
1071,0.0
1072,-9.3125
1073,0.0
1074,0.001266980042480877
1075,11.5
1076,-9.3125
1077,0.0
1078,0.001266980042480877
1079,4.5
2,1, 1, 1, 0,10, 0.00,60.00,Tuesday
7,-7.525
270,-9.867039890139055
271,-9.985059278065262
272,-9.920343517927567
273,-9.988277469356549
274,-9.908523625853463
275,-10.082193360276325
362,1442.0394228751684
363,0.0
364,15.07542271943391
403,2415.5836467034825
404,0.0
405,21.192006656997216
444,69.48373286343127
445,45.522585853583368
446,22.200371353913007
485,2372.139106383289
486,0.0
487,20.719484522065625
526,1308.2842888419487
527,0.0
528,22.200668873040358
567,2445.1918712009048
568,0.0
569,21.48107859025228
570,0.0
571,9753.069697182365
572,0.0
573,0.0
747,2641.3585318661346
750,272.03604905829908
753,2571.819604843382
756,1608.2097185052995
759,2714.3806046931019
762,0.0
765,21.777211097370207
816,0.0
817,0.0
820,0.0
821,0.0
859,9753.069697182365
885,12191.337121477956
972,0.0
998,0.0
1012,7.22
1013,7.22
1014,0.0
1015,0.0
1054,74.92999334171616
1055,0.32873891205198788
1057,7.22
1058,0.0
1059,14.934627816978422
1060,0.0016537330722806779
1061,-9.830126786306482
1062,16.03935953491942
1063,0.2230737757667906
1064,0.0016537330722806779
1065,16.0
1066,82.0
1067,0.0
1068,0.00011301699918084778
1069,0.0
1070,7.22
1071,0.0
1072,-7.525
1073,0.0
1074,0.00129622204152932
1075,11.5
1076,-7.525
1077,0.0
1078,0.00129622204152932
1079,4.5
2,1, 1, 1, 0,11, 0.00,60.00,Tuesday
7,-5.6375
270,-10.019263075660572
271,-10.115861265477442
272,-10.049390803605848
273,-10.118877053828685
274,-10.03711212161456
275,-10.210165033637573
362,1366.942513265369
363,0.0
364,15.741420801650844
403,2069.9808055224359
404,0.0
405,22.098354739770497
444,0.0
445,222.84992812354705
446,22.27537068412865
485,2354.281181384258
486,0.0
487,21.206314293854616
526,1164.5537253702103
527,0.0
528,22.199855299182408
567,2443.322423147886
568,0.0
569,21.642143969017995
570,0.0
571,8853.772154209062
572,0.0
573,0.0
747,2311.1599246721859
750,5.911828267495858
753,2551.0772767803039
756,1437.443192034732
759,2693.0587404961245
762,0.0
765,0.0
816,0.0
817,0.0
820,0.0
821,0.0
859,8853.772154209062
885,11067.215192761327
972,0.0
998,0.0
1012,7.22
1013,7.22
1014,0.0
1015,0.0
1054,74.27105905437205
1055,0.27663245376396125
1057,7.22
1058,0.0
1059,15.585786384224424
1060,0.0016312510109328326
1061,-9.99108477610281
1062,16.59370414648799
1063,0.2230737757667906
1064,0.0016312510109328326
1065,16.0
1066,82.0
1067,0.0
1068,0.0
1069,0.0
1070,7.22
1071,0.0
1072,-5.6375
1073,0.0
1074,0.0014777506762901484
1075,11.5
1076,-5.6375
1077,0.0
1078,0.0014777506762901484
1079,4.5
2,1, 1, 1, 0,12, 0.00,60.00,Tuesday
7,-3.9375
270,-10.101051993188332
271,-10.07719736012973
272,-10.046739186866763
273,-10.079210520030616
274,-10.045639877648814
275,-10.142870414144193
362,1245.3975239028064
363,0.0
364,16.498687555750494
403,1329.9288628327423
404,0.0
405,22.199828241930005
444,19.817214995069834
445,105.76654987322968
446,22.21495507958545
485,2331.8789251210207
486,0.0
487,21.82289231303802
526,1000.1144398447221
527,0.0
528,22.200542963653406
567,2435.8183318600888
568,0.0
569,21.95679078044671
570,0.0
571,8015.060315063123
572,0.0
573,0.0
747,1543.7266247979315
750,111.18515267991524
753,2523.9747588471057
756,1237.718548064198
759,2665.1731007771847
762,0.0
765,0.0
816,0.0
817,0.0
820,0.0
821,0.0
859,8015.060315063123
885,10018.825393828904
972,0.0
998,0.0
1012,7.22
1013,7.22
1014,0.0
1015,0.0
1054,73.48096762881326
1055,0.22428836858177718
1057,7.22
1058,0.0
1059,16.310802993257018
1060,0.001617724316219993
1061,-10.095880132109292
1062,17.318745902635255
1063,0.2230737757667906
1064,0.001617724316219993
1065,16.0
1066,82.0
1067,0.0
1068,0.0
1069,0.0
1070,7.22
1071,0.0
1072,-3.9375
1073,0.0
1074,0.0017410107165209384
1075,11.5
1076,-3.9375
1077,0.0
1078,0.0017410107165209384
1079,4.5
2,1, 1, 1, 0,13, 0.00,60.00,Tuesday
7,-2.6125
270,-10.040195277769348
271,-9.919798218788188
272,-9.945920235914514
273,-9.919821135798513
274,-9.958236533651864
275,-9.936743255253733
362,1119.0045520046447
363,0.0
364,17.201661755905528
403,1344.3793684382193
404,0.0
405,22.19951935902117
444,354.9233511360793
445,0.0
446,22.19985223004334
485,2206.4317639133025
486,0.0
487,22.18497602969297
526,899.3425106567597
527,0.0
528,22.19959842068861
567,2324.688561291235
568,0.0
569,22.18651374188442
570,0.0
571,7835.419780081636
572,0.0
573,0.0
747,1526.287664939748
750,522.1757022234494
753,2382.907823473784
756,1101.5137571341855
759,2529.3703900300836
762,0.0
765,0.0
816,0.0
817,0.0
820,0.0
821,0.0
859,7835.419780081636
885,9794.274725102045
972,0.0
998,0.0
1012,7.22
1013,7.22
1014,0.0
1015,0.0
1054,71.48622603496553
1055,0.1818307573855213
1057,7.22
1058,0.0
1059,17.037707874475687
1060,0.0016230146973314104
1061,-10.070593126574125
1062,18.04564094851826
1063,0.2230737757667906
1064,0.0016230146973314104
1065,16.0
1066,82.0
1067,0.0
1068,0.0
1069,0.0
1070,7.22
1071,0.0
1072,-2.6125
1073,0.0
1074,0.001948700000298672
1075,11.5
1076,-2.6125
1077,0.0
1078,0.001948700000298672
1079,4.5
2,1, 1, 1, 0,14, 0.00,60.00,Tuesday
7,-1.5125000000000002
270,-9.86925177224548
271,-9.707634300187868
272,-9.779519947978703
273,-9.705621089074605
274,-9.79927728790769
275,-9.675702446855015
362,1004.9342155274778
363,0.0
364,17.730618901902319
403,1475.922083625439
404,0.0
405,22.200402802644399
444,595.955070483973
445,0.0
446,22.199985507426779
485,2015.0257247616142
486,0.0
487,22.20073938823775
526,841.3046264521628
527,0.0
528,22.20082960066939
567,2089.130470583565
568,0.0
569,22.199874064821509
570,0.0
571,7667.408044230817
572,0.0
573,0.0
747,1632.4295842732875
750,739.8461225604083
753,2167.401846414248
756,1015.2974657096683
759,2265.7306216119416
762,0.0
765,0.0
816,0.0
817,0.0
820,0.0
821,0.0
859,7667.408044230817
885,9584.26005528852
972,0.0
998,0.0
1012,7.22
1013,7.22
1014,0.0
1015,0.0
1054,67.78782461438023
1055,0.1290158208260102
1057,7.22
1058,0.0
1059,17.618087205125236
1060,0.0016457585310724395
1061,-9.918585615550067
1062,18.625977998254613
1063,0.2230737757667906
1064,0.0016457585310724395
1065,16.0
1066,82.0
1067,0.0
1068,0.0
1069,0.0
1070,7.22
1071,0.0
1072,-1.5125000000000002
1073,0.0
1074,0.0020948187498149018
1075,11.5
1076,-1.5125000000000002
1077,0.0
1078,0.0020948187498149018
1079,4.5
2,1, 1, 1, 0,15, 0.00,60.00,Tuesday
7,-1.1
270,-9.665024043489528
271,-9.509141506329272
272,-9.600415625291256
273,-9.505836775836098
274,-9.620306701962108
275,-9.442628819224114
362,926.2217030399373
363,0.0
364,18.08079021069162
403,1465.1393292974456
404,0.0
405,22.199603554204367
444,739.7588501679089
445,0.0
446,22.200482573362949
485,2011.6723123422904
486,0.0
487,22.200079597021678
526,828.0768724958862
527,0.0
528,22.2000402836708
567,1935.514192333073
568,0.0
569,22.199818015254299
570,0.0
571,7647.30350133702
572,0.0
573,0.0
747,1604.6011232819586
750,868.0355243452525
753,2147.455362745596
756,983.1355534173549
759,2092.896090419166
762,0.0
765,0.0
816,0.0
817,0.0
820,0.0
821,0.0
859,7647.30350133702
885,9559.129376671275
972,0.0
998,0.0
1012,7.22
1013,7.22
1014,0.0
1015,0.0
1054,66.87153603732382
1055,0.12066191099671434
1057,7.22
1058,0.0
1059,18.006630797833325
1060,0.0016757274740781545
1061,-9.715585637574068
1062,19.014465883780969
1063,0.2230737757667906
1064,0.0016757274740781545
1065,16.0
1066,82.0
1067,0.0
1068,0.0
1069,0.0
1070,7.22
1071,0.0
1072,-1.1
1073,0.0
1074,0.002207661719883767
1075,11.5
1076,-1.1
1077,0.0
1078,0.002207661719883767
1079,4.5
2,1, 1, 1, 0,16, 0.00,60.00,Tuesday
7,-1.1
270,-9.4767764550529
271,-9.350496266307419
272,-9.44076560084453
273,-9.346677699623149
274,-9.457168003315557
275,-9.265414791294491
362,879.6345178974536
363,0.0
364,18.288072122547065
403,1716.9514417025444
404,0.0
405,22.20056249409247
444,829.9641532224865
445,0.0
446,22.199983189902626
485,2065.27707153391
486,0.0
487,22.199470438993985
526,844.628118495633
527,0.0
528,22.200376311895885
567,1796.0750388176455
568,0.0
569,22.199363674652714
570,0.0
571,7895.243778652322
572,0.0
573,0.0
747,1845.8199122342115
750,948.4494449307327
753,2190.6888768467008
756,987.8908258857434
759,1941.4379640485018
762,0.0
765,0.0
816,0.0
817,0.0
820,0.0
821,0.0
859,7895.243778652322
885,9869.054723315403
972,0.0
998,0.0
1012,7.22
1013,7.22
1014,0.0
1015,0.0
1054,67.42098036970656
1055,0.12931297703211004
1057,7.22
1058,0.0
1059,18.249608243563654
1060,0.0017049339967437874
1061,-9.520887689151249
1062,19.25738904539005
1063,0.2230737757667906
1064,0.0017049339967437874
1065,16.0
1066,82.0
1067,0.0
1068,0.0
1069,0.0
1070,7.22
1071,0.0
1072,-1.1
1073,0.0
1074,0.0023574553578538106
1075,11.5
1076,-1.1
1077,0.0
1078,0.0023574553578538106
1079,4.5
2,1, 1, 1, 0,17, 0.00,60.00,Tuesday
7,-1.1
270,-9.338492296615284
271,-9.277534297315532
272,-9.348268809672185
273,-9.273968211961142
274,-9.357632956100959
275,-9.191056017493075
362,863.400978815991
363,0.0
364,18.36048600958679
403,1983.570884194928
404,0.0
405,22.200490322405274
444,885.8178280743259
445,0.0
446,22.19990082762663
485,2107.7826403863148
486,0.0
487,22.200945963730839
526,891.1422293961991
527,0.0
528,22.200314628709167
567,1677.9032658226439
568,0.0
569,22.199982328439164
570,0.0
571,8174.645555747794
572,0.0
573,0.0
747,2107.9219324102298
750,1000.140888682896
753,2228.8728830521915
756,1029.3711672949083
759,1818.207983911306
762,0.0
765,0.0
816,0.0
817,0.0
820,0.0
821,0.0
859,8174.645555747794
885,10218.30694468474
972,0.0
998,0.0
1012,7.22
1013,7.22
1014,0.0
1015,0.0
1054,68.56800984399723
1055,0.14531672072811495
1057,7.22
1058,0.0
1059,18.353293130377446
1060,0.001728543097646715
1061,-9.365688438502119
1062,19.36103005581788
1063,0.2230737757667906
1064,0.001728543097646715
1065,16.0
1066,82.0
1067,0.0
1068,0.0
1069,0.0
1070,7.22
1071,0.0
1072,-1.1
1073,0.0
1074,0.002423558657988044
1075,11.5
1076,-1.1
1077,0.0
1078,0.002423558657988044
1079,4.5
2,1, 1, 1, 0,18, 0.00,60.00,Tuesday
7,-1.4749999999999999
270,-9.28762125059242
271,-9.283153317125907
272,-9.317516938944916
273,-9.280644388319012
274,-9.317778732149638
275,-9.213469267116008
362,868.0350917225949
363,0.0
364,18.339939093291425
403,2115.235056383769
404,0.0
405,22.199864473426424
444,919.021247113011
445,0.0
446,22.20043192303462
485,2136.661917987316
486,0.0
487,22.198733196778606
526,921.7448299570901
527,0.0
528,22.199560155172173
567,1653.2840547958527
568,0.0
569,22.19972899283394
570,0.0
571,8386.00824974809
572,0.0
573,0.0
747,2239.7018050511048
750,1033.4714560297478
753,2257.8016166011045
756,1060.0607313784317
759,1793.7348126971436
762,0.0
765,0.0
816,0.0
817,0.0
820,0.0
821,0.0
859,8386.00824974809
885,10482.510312185112
972,0.0
998,0.0
1012,7.22
1013,7.22
1014,0.0
1015,0.0
1054,69.63269167033509
1055,0.16196771290802346
1057,7.22
1058,0.0
1059,18.35096487506213
1060,0.0017397013021539423
1061,-9.292995716157528
1062,19.35868106480645
1063,0.2230737757667906
1064,0.0017397013021539423
1065,16.0
1066,82.0
1067,0.0
1068,0.0
1069,0.0
1070,7.22
1071,0.0
1072,-1.4749999999999999
1073,0.0
1074,0.0024127773572044655
1075,11.5
1076,-1.4749999999999999
1077,0.0
1078,0.0024127773572044655
1079,4.5
2,1, 1, 1, 0,19, 0.00,60.00,Tuesday
7,-2.0125
270,-9.27163504416762
271,-9.237571612255675
272,-9.253646759703808
273,-9.23596349041972
274,-9.253457479796833
275,-9.184098921981369
362,882.9363666983832
363,0.0
364,18.27353315723029
403,2285.5670145432816
404,0.0
405,22.19898762931257
444,978.4747975020239
445,0.0
446,22.199863346650014
485,2263.120104641229
486,0.0
487,22.200078766877526
526,981.0972418625312
527,0.0
528,22.20042020063047
567,1800.4878637200259
568,0.0
569,22.200181417669229
570,0.0
571,9047.782337037921
572,0.0
573,0.0
747,2412.5525152437696
750,1095.2479838056425
753,2386.807815570439
756,1122.29173015366
759,1943.8552679106513
762,0.0
765,0.0
816,0.0
817,0.0
820,0.0
821,0.0
859,9047.782337037921
885,11309.7279212974
972,0.0
998,0.0
1012,7.22
1013,7.22
1014,0.0
1015,0.0
1054,72.40215318095139
1055,0.22826113870082155
1057,7.22
1058,0.0
1059,18.292524112723144
1060,0.0017418976493530528
1061,-9.27874494527368
1062,19.30023622103098
1063,0.2230737757667906
1064,0.0017418976493530528
1065,16.0
1066,82.0
1067,0.0
1068,0.0
1069,0.0
1070,7.22
1071,0.0
1072,-2.0125
1073,0.0
1074,0.00240461704416355
1075,11.5
1076,-2.0125
1077,0.0
1078,0.00240461704416355
1079,4.5
2,1, 1, 1, 0,20, 0.00,60.00,Tuesday
7,-1.5125000000000002
270,-9.178229137076097
271,-9.066108956039413
272,-9.106752131333325
273,-9.064140428470245
274,-9.116870741542915
275,-9.00604216890136
362,901.6476240570844
363,0.0
364,18.189938266321805
403,2378.7439978520217
404,0.0
405,22.201054288847005
444,1013.3587152907774
445,0.0
446,22.199086307757637
485,2326.526789917082
486,0.0
487,22.193896152219304
526,1014.851963052723
527,0.0
528,22.201073789676337
567,1917.635956495282
568,0.0
569,22.199933696774207
570,0.0
571,9246.558264938618
572,0.0
573,0.0
747,2509.3248184667907
750,1133.3538882485385
753,2453.3630746706596
756,1160.0175403096797
759,2064.9619574058008
762,0.0
765,0.0
816,0.0
817,0.0
820,0.0
821,0.0
859,9246.558264938618
885,11558.197831173271
972,0.0
998,0.0
1012,7.22
1013,7.22
1014,0.0
1015,0.0
1054,74.00796927741638
1055,0.27578496277891875
1057,7.22
1058,0.0
1059,18.211355500752405
1060,0.0017522382019362949
1061,-9.211926173269183
1062,19.21904839393402
1063,0.2230737757667906
1064,0.0017522382019362949
1065,16.0
1066,82.0
1067,0.0
1068,0.0
1069,0.0
1070,7.22
1071,0.0
1072,-1.5125000000000002
1073,0.0
1074,0.0024820920825542479
1075,11.5
1076,-1.5125000000000002
1077,0.0
1078,0.0024820920825542479
1079,4.5